 Gaussian 09, Revision C.01,
 Gaussian 09:  AM64L-G09RevC.01 23-Sep-2011

 --------------------------------------------------
 #p rm06l/gen opt Integral(Grid=UltraFineGrid) freq
 --------------------------------------------------

 (Enter /usr/common/usg/g09/c1/g09/l101.exe)
 -------------------
 Oniom Calculation 1
 -------------------
 Charge =  0 Multiplicity = 1

 SCF Done:  E(RM06L) =  -76.3500217854     A.U. after   10 cycles
 Optimization completed.
    -- Stationary point found.
 Normal termination of Gaussian 09 at Mon Oct 19 08:02:02 2015.

 -----------------------------------------------------------------
 #P Geom=AllCheck Guess=TCheck SCRF=Check GenChk RM06L/ChkBas Freq
 -----------------------------------------------------------------

 Structure from the checkpoint file:  checkpoint.chk
 -------------------
 Oniom Calculation 1
 -------------------
 Charge =  0 Multiplicity = 1

                         Standard orientation:
 ---------------------------------------------------------------------
 Center     Atomic      Atomic             Coordinates (Angstroms)
 Number     Number       Type             X           Y           Z
 ---------------------------------------------------------------------
      1          1           0        0.000000    0.751647   -0.480838
      2          1           0        0.000000   -0.751647   -0.480838
      3          8           0        0.000000    0.000000    0.120210
 ---------------------------------------------------------------------

 SCF Done:  E(RM06L) =  -76.3500217854     A.U. after    1 cycles

 The electronic state is 1-A1.
 Alpha  occ. eigenvalues --  -18.95765  -0.95527  -0.47527  -0.33312  -0.25129
 Alpha virt. eigenvalues --    0.05324   0.12616   0.54586   0.61134   0.91689
 Alpha virt. eigenvalues --    0.92388   1.00839   1.09274   1.35279   1.39539
 Alpha virt. eigenvalues --    1.55071   1.81745   2.22443   2.27331   2.98663

 Mulliken atomic charges:
              1
     1  H    0.165320
     2  H    0.165320
     3  O   -0.330640
 Sum of Mulliken atomic charges =   0.00000

 Dipole moment (field-independent basis, Debye):
    X=              0.0000    Y=              0.0000    Z=             -2.0148  Tot=              2.0148
 Quadrupole moment (field-independent basis, Debye-Ang):
   XX=             -7.0028   YY=             -4.2924   ZZ=             -5.8933
   XY=              0.0000   XZ=              0.0000   YZ=              0.0000

  Exact polarizability:   3.097   0.000   6.939   0.000   0.000   5.337
 Approx polarizability:   3.497   0.000   9.378   0.000   0.000   7.307

                     1                      2                      3
                    A1                     A1                     B2
 Frequencies --  1683.1703              3857.6744              3970.2602
 Red. masses --     1.0805                 1.0472                 1.0801
 Frc consts  --     1.8036                 9.1818                10.0308
 IR Inten    --    59.3897                10.7716                47.0319

 - Thermochemistry -
 -------------------
 Temperature   298.150 Kelvin.  Pressure   1.00000 Atm.
 Atom     1 has atomic number  1 and mass   1.00783

 Molecular mass:    18.01056 amu.
 Principal axes and moments of inertia in atomic units:
                           1         2         3
     Eigenvalues --     2.30933   4.06669   6.37602
           X            0.00000   0.00000   1.00000
           Y            1.00000   0.00000   0.00000
           Z            0.00000   1.00000   0.00000
 This molecule is an asymmetric top.
 Rotational symmetry number  2.
 Rotational temperatures (Kelvin)     37.50606    21.29835    13.58431
 Rotational constants (GHZ):         781.50048   443.78610   283.05138
 Zero-point vibrational energy      56889.0 (Joules/Mol)
                                   13.59681 (Kcal/Mol)
 Vibrational temperatures:   2421.70  5550.33  5712.31
          (Kelvin)

 Zero-point correction=                           0.021668 (Hartree/Particle)
 Thermal correction to Energy=                    0.024503
 Thermal correction to Enthalpy=                  0.025447
 Thermal correction to Gibbs Free Energy=         0.004016
 Sum of electronic and zero-point Energies=            -76.328354
 Sum of electronic and thermal Energies=               -76.325519
 Sum of electronic and thermal Enthalpies=             -76.324575
 Sum of electronic and thermal Free Energies=          -76.346006

                     E (Thermal)             CV                S
                      KCal/Mol        Cal/Mol-Kelvin    Cal/Mol-Kelvin
 Total                   15.376              6.001             45.105
 Electronic               0.000              0.000              0.000
 Translational            0.889              2.981             34.608
 Rotational               0.889              2.981             10.492
 Vibrational             13.598              0.039              0.005

 Optimization completed.
    -- Stationary point found.
 Normal termination of Gaussian 09 at Mon Oct 19 08:02:14 2015.
